# vtk DataFile Version 2.0
step 0 time 0.000000e+00 normalized time 0.000000e+00, generated by simple.py
ASCII
DATASET UNSTRUCTURED_GRID

POINTS 510 float
-4.000000e-01 4.000000e-01 0.000000e+00
0.000000e+00 1.000000e-01 0.000000e+00
0.000000e+00 -1.000000e-01 0.000000e+00
-4.000000e-01 -4.000000e-01 0.000000e+00
-2.000000e-01 -4.000000e-01 0.000000e+00
3.000000e-01 -1.000000e-01 0.000000e+00
3.000000e-01 1.000000e-01 0.000000e+00
-2.000000e-01 4.000000e-01 0.000000e+00
-4.000000e-01 -5.000000e-01 0.000000e+00
-4.000000e-01 5.000000e-01 0.000000e+00
-2.000000e-01 -5.000000e-01 0.000000e+00
-2.000000e-01 5.000000e-01 0.000000e+00
-5.000000e-01 -5.000000e-01 0.000000e+00
-5.000000e-01 5.000000e-01 0.000000e+00
-5.000000e-01 -3.000000e-01 0.000000e+00
-5.000000e-01 -2.000000e-01 0.000000e+00
-5.000000e-01 2.000000e-01 0.000000e+00
-5.000000e-01 3.000000e-01 0.000000e+00
-8.094750e-02 -5.000000e-01 0.000000e+00
2.859548e-02 -5.000000e-01 0.000000e+00
5.000000e-01 -5.000000e-01 0.000000e+00
-8.094750e-02 5.000000e-01 0.000000e+00
2.859548e-02 5.000000e-01 0.000000e+00
5.000000e-01 5.000000e-01 0.000000e+00
5.000000e-01 -3.000000e-01 0.000000e+00
5.000000e-01 -2.000000e-01 0.000000e+00
5.000000e-01 2.000000e-01 0.000000e+00
5.000000e-01 3.000000e-01 0.000000e+00
-3.000000e-01 -0.000000e+00 0.000000e+00
-1.000000e-01 -0.000000e+00 0.000000e+00
-3.585786e-01 -1.414214e-01 0.000000e+00
-3.585786e-01 1.414214e-01 0.000000e+00
-2.375705e-01 -2.264090e-01 0.000000e+00
-2.375705e-01 2.264090e-01 0.000000e+00
2.386123e-01 -3.442588e-01 0.000000e+00
2.386123e-01 3.442588e-01 0.000000e+00
1.640051e-01 2.686007e-01 0.000000e+00
1.640051e-01 -2.686007e-01 0.000000e+00
-2.000000e-01 2.500000e-01 0.000000e+00
-2.000000e-01 -2.500000e-01 0.000000e+00
5.000000e-02 -2.500000e-01 0.000000e+00
5.000000e-02 2.500000e-01 0.000000e+00
-3.634424e-01 2.819761e-01 0.000000e+00
1.887457e-02 -3.610037e-01 0.000000e+00
3.283655e-01 2.167150e-01 0.000000e+00
-3.634424e-01 -2.819761e-01 0.000000e+00
1.887457e-02 3.610037e-01 0.000000e+00
3.283655e-01 -2.167150e-01 0.000000e+00
-3.000000e-01 -3.250000e-01 0.000000e+00
1.750000e-01 -1.750000e-01 0.000000e+00
-7.500000e-02 3.250000e-01 0.000000e+00
-3.000000e-01 3.250000e-01 0.000000e+00
-7.500000e-02 -3.250000e-01 0.000000e+00
1.750000e-01 1.750000e-01 0.000000e+00
-3.666667e-01 3.750000e-01 0.000000e+00
-3.333333e-01 3.500000e-01 0.000000e+00
0.000000e+00 5.000000e-02 0.000000e+00
0.000000e+00 0.000000e+00 0.000000e+00
0.000000e+00 -5.000000e-02 0.000000e+00
-4.656316e-02 -1.349224e-01 0.000000e+00
-8.958558e-02 -1.671892e-01 0.000000e+00
-1.293365e-01 -1.970024e-01 0.000000e+00
-1.660647e-01 -2.245485e-01 0.000000e+00
-1.583333e-01 -3.750000e-01 0.000000e+00
-1.166667e-01 -3.500000e-01 0.000000e+00
3.000000e-01 -5.000000e-02 0.000000e+00
3.000000e-01 0.000000e+00 0.000000e+00
3.000000e-01 5.000000e-02 0.000000e+00
2.583333e-01 1.250000e-01 0.000000e+00
2.166667e-01 1.500000e-01 0.000000e+00
-4.000000e-01 -4.500000e-01 0.000000e+00
-4.000000e-01 4.500000e-01 0.000000e+00
-2.000000e-01 -4.500000e-01 0.000000e+00
-2.000000e-01 4.500000e-01 0.000000e+00
-4.500000e-01 -5.000000e-01 0.000000e+00
-3.500000e-01 -5.000000e-01 0.000000e+00
-3.000000e-01 -5.000000e-01 0.000000e+00
-2.500000e-01 -5.000000e-01 0.000000e+00
-4.500000e-01 5.000000e-01 0.000000e+00
-3.500000e-01 5.000000e-01 0.000000e+00
-3.000000e-01 5.000000e-01 0.000000e+00
-2.500000e-01 5.000000e-01 0.000000e+00
-5.000000e-01 -4.500000e-01 0.000000e+00
-5.000000e-01 -4.000000e-01 0.000000e+00
-5.000000e-01 -3.500000e-01 0.000000e+00
-5.000000e-01 -2.500000e-01 0.000000e+00
-5.000000e-01 -1.428571e-01 0.000000e+00
-5.000000e-01 -8.571429e-02 0.000000e+00
-5.000000e-01 -2.857143e-02 0.000000e+00
-5.000000e-01 2.857143e-02 0.000000e+00
-5.000000e-01 8.571429e-02 0.000000e+00
-5.000000e-01 1.428571e-01 0.000000e+00
-5.000000e-01 2.500000e-01 0.000000e+00
-5.000000e-01 3.500000e-01 0.000000e+00
-5.000000e-01 4.000000e-01 0.000000e+00
-5.000000e-01 4.500000e-01 0.000000e+00
-1.404738e-01 -5.000000e-01 0.000000e+00
-2.617601e-02 -5.000000e-01 0.000000e+00
8.752104e-02 -5.000000e-01 0.000000e+00
1.464466e-01 -5.000000e-01 0.000000e+00
2.053722e-01 -5.000000e-01 0.000000e+00
2.642977e-01 -5.000000e-01 0.000000e+00
3.232233e-01 -5.000000e-01 0.000000e+00
3.821489e-01 -5.000000e-01 0.000000e+00
4.410744e-01 -5.000000e-01 0.000000e+00
-1.404738e-01 5.000000e-01 0.000000e+00
-2.617601e-02 5.000000e-01 0.000000e+00
8.752104e-02 5.000000e-01 0.000000e+00
1.464466e-01 5.000000e-01 0.000000e+00
2.053722e-01 5.000000e-01 0.000000e+00
2.642977e-01 5.000000e-01 0.000000e+00
3.232233e-01 5.000000e-01 0.000000e+00
3.821489e-01 5.000000e-01 0.000000e+00
4.410744e-01 5.000000e-01 0.000000e+00
5.000000e-01 -4.500000e-01 0.000000e+00
5.000000e-01 -4.000000e-01 0.000000e+00
5.000000e-01 -3.500000e-01 0.000000e+00
5.000000e-01 -2.500000e-01 0.000000e+00
5.000000e-01 -1.428571e-01 0.000000e+00
5.000000e-01 -8.571429e-02 0.000000e+00
5.000000e-01 -2.857143e-02 0.000000e+00
5.000000e-01 2.857143e-02 0.000000e+00
5.000000e-01 8.571429e-02 0.000000e+00
5.000000e-01 1.428571e-01 0.000000e+00
5.000000e-01 2.500000e-01 0.000000e+00
5.000000e-01 3.500000e-01 0.000000e+00
5.000000e-01 4.000000e-01 0.000000e+00
5.000000e-01 4.500000e-01 0.000000e+00
-4.482362e-01 -1.931852e-01 0.000000e+00
-4.000000e-01 -1.732051e-01 0.000000e+00
-3.267949e-01 -1.000000e-01 0.000000e+00
-3.068148e-01 -5.176381e-02 0.000000e+00
-3.068148e-01 5.176381e-02 0.000000e+00
-3.267949e-01 1.000000e-01 0.000000e+00
-4.000000e-01 1.732051e-01 0.000000e+00
-4.482362e-01 1.931852e-01 0.000000e+00
-4.540082e-01 -2.980104e-01 0.000000e+00
-4.083648e-01 -2.920217e-01 0.000000e+00
-2.078741e-01 -2.049332e-01 0.000000e+00
-1.781922e-01 -1.781779e-01 0.000000e+00
-1.498702e-01 -1.450608e-01 0.000000e+00
-1.250713e-01 -1.045395e-01 0.000000e+00
-1.070309e-01 -5.600095e-02 0.000000e+00
-1.070309e-01 5.600095e-02 0.000000e+00
-1.250713e-01 1.045395e-01 0.000000e+00
-1.498702e-01 1.450608e-01 0.000000e+00
-1.781922e-01 1.781779e-01 0.000000e+00
-2.078741e-01 2.049332e-01 0.000000e+00
-2.690872e-01 2.449635e-01 0.000000e+00
-3.101918e-01 2.640733e-01 0.000000e+00
4.467450e-01 -3.017065e-01 0.000000e+00
3.937128e-01 -3.068565e-01 0.000000e+00
3.411462e-01 -3.155434e-01 0.000000e+00
2.893269e-01 -3.279300e-01 0.000000e+00
1.894867e-01 -3.648632e-01 0.000000e+00
1.426257e-01 -3.901856e-01 0.000000e+00
9.903208e-02 -4.207770e-01 0.000000e+00
6.024215e-02 -4.572390e-01 0.000000e+00
6.024215e-02 4.572390e-01 0.000000e+00
9.903208e-02 4.207770e-01 0.000000e+00
1.426257e-01 3.901856e-01 0.000000e+00
1.894867e-01 3.648632e-01 0.000000e+00
2.893269e-01 3.279300e-01 0.000000e+00
3.411462e-01 3.155434e-01 0.000000e+00
3.937128e-01 3.068565e-01 0.000000e+00
4.467450e-01 3.017065e-01 0.000000e+00
-5.532022e-02 4.485339e-01 0.000000e+00
-2.140496e-02 4.020810e-01 0.000000e+00
2.174149e-01 2.471414e-01 0.000000e+00
2.723365e-01 2.299133e-01 0.000000e+00
4.424651e-01 -2.018433e-01 0.000000e+00
3.851688e-01 -2.073940e-01 0.000000e+00
1.126261e-01 -2.945375e-01 0.000000e+00
6.395152e-02 -3.252381e-01 0.000000e+00
-1.660647e-01 2.245485e-01 0.000000e+00
-1.293365e-01 1.970024e-01 0.000000e+00
-8.958558e-02 1.671892e-01 0.000000e+00
-4.656316e-02 1.349224e-01 0.000000e+00
-2.264580e-01 -2.698435e-01 0.000000e+00
-2.592809e-01 -2.944607e-01 0.000000e+00
9.166667e-02 -2.250000e-01 0.000000e+00
1.333333e-01 -2.000000e-01 0.000000e+00
8.333333e-03 2.750000e-01 0.000000e+00
-3.333333e-02 3.000000e-01 0.000000e+00
-4.083648e-01 2.920217e-01 0.000000e+00
-4.540082e-01 2.980104e-01 0.000000e+00
-2.140496e-02 -4.020810e-01 0.000000e+00
-5.532022e-02 -4.485339e-01 0.000000e+00
3.851688e-01 2.073940e-01 0.000000e+00
4.424651e-01 2.018433e-01 0.000000e+00
-3.101918e-01 -2.640733e-01 0.000000e+00
-2.690872e-01 -2.449635e-01 0.000000e+00
6.395152e-02 3.252381e-01 0.000000e+00
1.126261e-01 2.945375e-01 0.000000e+00
2.723365e-01 -2.299133e-01 0.000000e+00
2.174149e-01 -2.471414e-01 0.000000e+00
-3.333333e-01 -3.500000e-01 0.000000e+00
-3.666667e-01 -3.750000e-01 0.000000e+00
2.166667e-01 -1.500000e-01 0.000000e+00
2.583333e-01 -1.250000e-01 0.000000e+00
-1.166667e-01 3.500000e-01 0.000000e+00
-1.583333e-01 3.750000e-01 0.000000e+00
-2.592809e-01 2.944607e-01 0.000000e+00
-2.264580e-01 2.698435e-01 0.000000e+00
-3.333333e-02 -3.000000e-01 0.000000e+00
8.333333e-03 -2.750000e-01 0.000000e+00
1.333333e-01 2.000000e-01 0.000000e+00
9.166667e-02 2.250000e-01 0.000000e+00
1.449703e-01 1.212406e-02 0.000000e+00
4.013105e-01 -7.448717e-02 0.000000e+00
3.927291e-01 6.285919e-02 0.000000e+00
-3.947130e-01 -3.347097e-03 0.000000e+00
-2.055316e-01 9.544269e-03 0.000000e+00
3.932169e-01 3.964300e-01 0.000000e+00
3.893933e-01 -4.047189e-01 0.000000e+00
-2.391537e-01 -1.125047e-01 0.000000e+00
-2.366951e-01 1.259951e-01 0.000000e+00
7.953204e-02 -1.466792e-01 0.000000e+00
7.078301e-02 1.436850e-01 0.000000e+00
2.423918e-01 4.244390e-01 0.000000e+00
2.347658e-01 -4.204019e-01 0.000000e+00
-3.106805e-01 -4.181761e-01 0.000000e+00
-3.045809e-01 4.182401e-01 0.000000e+00
-4.189101e-01 9.100553e-02 0.000000e+00
-2.844066e-02 2.049346e-01 0.000000e+00
-1.761886e-02 -2.027402e-01 0.000000e+00
-8.702872e-02 2.715601e-01 0.000000e+00
-7.582141e-02 -2.720021e-01 0.000000e+00
3.435475e-01 -1.636565e-01 0.000000e+00
3.458913e-01 1.632747e-01 0.000000e+00
-3.162709e-01 2.044957e-01 0.000000e+00
-3.097444e-01 -2.165734e-01 0.000000e+00
-4.445276e-01 -1.029405e-01 0.000000e+00
-1.635702e-01 3.216917e-01 0.000000e+00
-1.661059e-01 -3.198159e-01 0.000000e+00
-1.279893e-01 -4.444212e-01 0.000000e+00
-1.125776e-01 4.062899e-01 0.000000e+00
-2.471300e-01 3.507013e-01 0.000000e+00
-2.474709e-01 -3.502174e-01 0.000000e+00
-3.974378e-01 2.316145e-01 0.000000e+00
-3.951986e-01 -2.311661e-01 0.000000e+00
-4.993483e-02 7.905279e-02 0.000000e+00
-5.011583e-02 -7.249441e-02 0.000000e+00
-4.173340e-01 -3.426238e-01 0.000000e+00
-4.359815e-01 3.453035e-01 0.000000e+00
[...]
POINT_DATA 510

SCALARS node_groups int 1
LOOKUP_TABLE default
0
0
0
0
0
0
0
0
0
0
0
0
0
0
0
0
0
0
0
0
0
0
0
0
0
0
0
0
0
0
0
0
0
0
0
0
0
0
0
0
0
0
0
0
0
0
0
0
0
0
0
0
0
0
0
0
0
0
0
0
0
0
0
0
0
0
0
0
0
0
0
0
0
0
0
0
0
0
0
0
0
0
0
0
0
0
0
0
0
0
0
0
0
0
0
0
0
0
0
0
0
0
0
0
0
0
0
0
0
0
0
0
0
0
0
0
0
0
0
0
0
0
0
0
0
0
0
0
0
0
0
0
0
0
0
0
0
0
0
0
0
0
0
0
0
0
0
0
0
0
0
0
0
0
0
0
0
0
0
0
0
0
0
0
0
0
0
0
0
0
0
0
0
0
0
0
0
0
0
0
0
0
0
0
0
0
0
0
0
0
0
0
0
0
0
0
0
0
0
0
0
0
0
0
0
0
0
0
0
0
0
0
0
0
0
0
0
0
0
0
0
0
0
0
0
0
0
0
0
0
0
0
0
0
0
0
0
0
0
0
0
0
0
0
0
0
0
0
0
0
0
0
0
0
0
0
0
0
0
0
0
0
0
0
0
0
0
0
0
0
0
0
0
0
0
0
0
0
0
0
0
0
0
0
0
0
0
0
0
0
0
0
0
0
0
0
0
0
0
0
0
0
0
0
0
0
0
0
0
0
0
0
0
0
0
0
0
0
0
0
0
0
0
0
0
0
0
0
0
0
0
0
0
0
0
0
0
0
0
0
0
0
0
0
0
0
0
0
0
0
0
0
0
0
0
0
0
0
0
0
0
0
0
0
0
0
0
0
0
0
0
0
0
0
0
0
0
0
0
0
0
0
0
0
0
0
0
0
0
0
0
0
0
0
0
0
0
0
0
0
0
0
0
0
0
0
0
0
0
0
0
0
0
0
0
0
0
0
0
0
0
0
0
0
0
0
0
0
0
0
0
0
0
0
0
0
0
0
0
0
0
0
0
0
0
0
0
0
0
0
0
0
0
0
0
0
0
0
0
0
0
0
0
0
0
0
0
0
0
0
0
0
0
0
0
0
0
0
0
0
0
0
0
0
0
0
0
0
0
0
0
0
0
0
0
0
0
0
0
0
0
0
0
0
0
0
0
0
0
0

VECTORS u float
0.000000e+00 0.000000e+00 0.000000e+00
0.000000e+00 0.000000e+00 0.000000e+00
0.000000e+00 0.000000e+00 0.000000e+00
0.000000e+00 0.000000e+00 0.000000e+00
0.000000e+00 0.000000e+00 0.000000e+00
0.000000e+00 0.000000e+00 0.000000e+00
0.000000e+00 0.000000e+00 0.000000e+00
0.000000e+00 0.000000e+00 0.000000e+00
0.000000e+00 0.000000e+00 0.000000e+00
0.000000e+00 0.000000e+00 0.000000e+00
0.000000e+00 0.000000e+00 0.000000e+00
0.000000e+00 0.000000e+00 0.000000e+00
0.000000e+00 0.000000e+00 0.000000e+00
0.000000e+00 0.000000e+00 0.000000e+00
0.000000e+00 0.000000e+00 0.000000e+00
0.000000e+00 0.000000e+00 0.000000e+00
0.000000e+00 0.000000e+00 0.000000e+00
0.000000e+00 0.000000e+00 0.000000e+00
0.000000e+00 0.000000e+00 0.000000e+00
0.000000e+00 0.000000e+00 0.000000e+00
0.000000e+00 0.000000e+00 0.000000e+00
0.000000e+00 0.000000e+00 0.000000e+00
0.000000e+00 0.000000e+00 0.000000e+00
0.000000e+00 0.000000e+00 0.000000e+00
0.000000e+00 0.000000e+00 0.000000e+00
0.000000e+00 0.000000e+00 0.000000e+00
0.000000e+00 0.000000e+00 0.000000e+00
0.000000e+00 0.000000e+00 0.000000e+00
0.000000e+00 0.000000e+00 0.000000e+00
0.000000e+00 0.000000e+00 0.000000e+00
0.000000e+00 0.000000e+00 0.000000e+00
0.000000e+00 0.000000e+00 0.000000e+00
0.000000e+00 0.000000e+00 0.000000e+00
0.000000e+00 0.000000e+00 0.000000e+00
0.000000e+00 0.000000e+00 0.000000e+00
0.000000e+00 0.000000e+00 0.000000e+00
0.000000e+00 0.000000e+00 0.000000e+00
0.000000e+00 0.000000e+00 0.000000e+00
0.000000e+00 0.000000e+00 0.000000e+00
0.000000e+00 0.000000e+00 0.000000e+00
0.000000e+00 0.000000e+00 0.000000e+00
0.000000e+00 0.000000e+00 0.000000e+00
0.000000e+00 0.000000e+00 0.000000e+00
0.000000e+00 0.000000e+00 0.000000e+00
0.000000e+00 0.000000e+00 0.000000e+00
0.000000e+00 0.000000e+00 0.000000e+00
0.000000e+00 0.000000e+00 0.000000e+00
0.000000e+00 0.000000e+00 0.000000e+00
0.000000e+00 0.000000e+00 0.000000e+00
0.000000e+00 0.000000e+00 0.000000e+00
0.000000e+00 0.000000e+00 0.000000e+00
0.000000e+00 0.000000e+00 0.000000e+00
0.000000e+00 0.000000e+00 0.000000e+00
0.000000e+00 0.000000e+00 0.000000e+00
0.000000e+00 0.000000e+00 0.000000e+00
0.000000e+00 0.000000e+00 0.000000e+00
0.000000e+00 0.000000e+00 0.000000e+00
0.000000e+00 0.000000e+00 0.000000e+00
0.000000e+00 0.000000e+00 0.000000e+00
0.000000e+00 0.000000e+00 0.000000e+00
0.000000e+00 0.000000e+00 0.000000e+00
0.000000e+00 0.000000e+00 0.000000e+00
0.000000e+00 0.000000e+00 0.000000e+00
0.000000e+00 0.000000e+00 0.000000e+00
0.000000e+00 0.000000e+00 0.000000e+00
0.000000e+00 0.000000e+00 0.000000e+00
0.000000e+00 0.000000e+00 0.000000e+00
0.000000e+00 0.000000e+00 0.000000e+00
0.000000e+00 0.000000e+00 0.000000e+00
0.000000e+00 0.000000e+00 0.000000e+00
0.000000e+00 0.000000e+00 0.000000e+00
0.000000e+00 0.000000e+00 0.000000e+00
0.000000e+00 0.000000e+00 0.000000e+00
0.000000e+00 0.000000e+00 0.000000e+00
0.000000e+00 0.000000e+00 0.000000e+00
-1.396621e-01 -9.851648e-01 0.000000e+00
-2.313291e-01 -1.382073e+00 0.000000e+00
-1.020804e-01 -1.040666e+00 0.000000e+00
0.000000e+00 0.000000e+00 0.000000e+00
0.000000e+00 -1.000000e+00 0.000000e+00
0.000000e+00 -1.000000e+00 0.000000e+00
0.000000e+00 -1.000000e+00 0.000000e+00
0.000000e+00 0.000000e+00 0.000000e+00
0.000000e+00 0.000000e+00 0.000000e+00
0.000000e+00 0.000000e+00 0.000000e+00
-1.355767e+00 -8.325999e-02 0.000000e+00
0.000000e+00 0.000000e+00 0.000000e+00
0.000000e+00 0.000000e+00 0.000000e+00
0.000000e+00 0.000000e+00 0.000000e+00
0.000000e+00 0.000000e+00 0.000000e+00
0.000000e+00 0.000000e+00 0.000000e+00
0.000000e+00 0.000000e+00 0.000000e+00
1.355808e+00 -8.341411e-02 0.000000e+00
0.000000e+00 0.000000e+00 0.000000e+00
0.000000e+00 0.000000e+00 0.000000e+00
0.000000e+00 0.000000e+00 0.000000e+00
0.000000e+00 0.000000e+00 0.000000e+00
-4.300009e-01 -1.136282e+00 0.000000e+00
0.000000e+00 0.000000e+00 0.000000e+00
0.000000e+00 0.000000e+00 0.000000e+00
0.000000e+00 0.000000e+00 0.000000e+00
0.000000e+00 0.000000e+00 0.000000e+00
0.000000e+00 0.000000e+00 0.000000e+00
0.000000e+00 0.000000e+00 0.000000e+00
0.000000e+00 0.000000e+00 0.000000e+00
0.000000e+00 0.000000e+00 0.000000e+00
0.000000e+00 -1.000000e+00 0.000000e+00
0.000000e+00 0.000000e+00 0.000000e+00
0.000000e+00 0.000000e+00 0.000000e+00
0.000000e+00 0.000000e+00 0.000000e+00
0.000000e+00 0.000000e+00 0.000000e+00
0.000000e+00 0.000000e+00 0.000000e+00
0.000000e+00 0.000000e+00 0.000000e+00
0.000000e+00 0.000000e+00 0.000000e+00
0.000000e+00 0.000000e+00 0.000000e+00
0.000000e+00 0.000000e+00 0.000000e+00
0.000000e+00 0.000000e+00 0.000000e+00
-1.355767e+00 -8.325999e-02 0.000000e+00
0.000000e+00 0.000000e+00 0.000000e+00
0.000000e+00 0.000000e+00 0.000000e+00
0.000000e+00 0.000000e+00 0.000000e+00
0.000000e+00 0.000000e+00 0.000000e+00
0.000000e+00 0.000000e+00 0.000000e+00
0.000000e+00 0.000000e+00 0.000000e+00
1.355808e+00 -8.341411e-02 0.000000e+00
0.000000e+00 0.000000e+00 0.000000e+00
0.000000e+00 0.000000e+00 0.000000e+00
0.000000e+00 0.000000e+00 0.000000e+00
0.000000e+00 0.000000e+00 0.000000e+00
0.000000e+00 0.000000e+00 0.000000e+00
0.000000e+00 0.000000e+00 0.000000e+00
0.000000e+00 0.000000e+00 0.000000e+00
0.000000e+00 0.000000e+00 0.000000e+00
0.000000e+00 0.000000e+00 0.000000e+00
0.000000e+00 0.000000e+00 0.000000e+00
0.000000e+00 0.000000e+00 0.000000e+00
0.000000e+00 0.000000e+00 0.000000e+00
0.000000e+00 0.000000e+00 0.000000e+00
0.000000e+00 0.000000e+00 0.000000e+00
0.000000e+00 0.000000e+00 0.000000e+00
0.000000e+00 0.000000e+00 0.000000e+00
0.000000e+00 0.000000e+00 0.000000e+00
0.000000e+00 0.000000e+00 0.000000e+00
0.000000e+00 0.000000e+00 0.000000e+00
0.000000e+00 0.000000e+00 0.000000e+00
0.000000e+00 0.000000e+00 0.000000e+00
0.000000e+00 0.000000e+00 0.000000e+00
0.000000e+00 0.000000e+00 0.000000e+00
0.000000e+00 0.000000e+00 0.000000e+00
0.000000e+00 0.000000e+00 0.000000e+00
0.000000e+00 0.000000e+00 0.000000e+00
0.000000e+00 0.000000e+00 0.000000e+00
0.000000e+00 0.000000e+00 0.000000e+00
0.000000e+00 0.000000e+00 0.000000e+00
0.000000e+00 0.000000e+00 0.000000e+00
0.000000e+00 0.000000e+00 0.000000e+00
0.000000e+00 0.000000e+00 0.000000e+00
0.000000e+00 0.000000e+00 0.000000e+00
0.000000e+00 0.000000e+00 0.000000e+00
0.000000e+00 0.000000e+00 0.000000e+00
0.000000e+00 0.000000e+00 0.000000e+00
0.000000e+00 0.000000e+00 0.000000e+00
0.000000e+00 0.000000e+00 0.000000e+00
0.000000e+00 0.000000e+00 0.000000e+00
0.000000e+00 0.000000e+00 0.000000e+00
0.000000e+00 0.000000e+00 0.000000e+00
0.000000e+00 0.000000e+00 0.000000e+00
0.000000e+00 0.000000e+00 0.000000e+00
0.000000e+00 0.000000e+00 0.000000e+00
0.000000e+00 0.000000e+00 0.000000e+00
0.000000e+00 0.000000e+00 0.000000e+00
0.000000e+00 0.000000e+00 0.000000e+00
0.000000e+00 0.000000e+00 0.000000e+00
0.000000e+00 0.000000e+00 0.000000e+00
0.000000e+00 0.000000e+00 0.000000e+00
0.000000e+00 0.000000e+00 0.000000e+00
0.000000e+00 0.000000e+00 0.000000e+00
0.000000e+00 0.000000e+00 0.000000e+00
0.000000e+00 0.000000e+00 0.000000e+00
0.000000e+00 0.000000e+00 0.000000e+00
0.000000e+00 0.000000e+00 0.000000e+00
0.000000e+00 0.000000e+00 0.000000e+00
0.000000e+00 0.000000e+00 0.000000e+00
0.000000e+00 0.000000e+00 0.000000e+00
0.000000e+00 0.000000e+00 0.000000e+00
0.000000e+00 0.000000e+00 0.000000e+00
0.000000e+00 0.000000e+00 0.000000e+00
0.000000e+00 0.000000e+00 0.000000e+00
0.000000e+00 0.000000e+00 0.000000e+00
0.000000e+00 0.000000e+00 0.000000e+00
0.000000e+00 0.000000e+00 0.000000e+00
0.000000e+00 0.000000e+00 0.000000e+00
0.000000e+00 0.000000e+00 0.000000e+00
0.000000e+00 0.000000e+00 0.000000e+00
0.000000e+00 0.000000e+00 0.000000e+00
0.000000e+00 0.000000e+00 0.000000e+00
0.000000e+00 0.000000e+00 0.000000e+00
0.000000e+00 0.000000e+00 0.000000e+00
0.000000e+00 0.000000e+00 0.000000e+00
0.000000e+00 0.000000e+00 0.000000e+00
0.000000e+00 0.000000e+00 0.000000e+00
0.000000e+00 0.000000e+00 0.000000e+00
0.000000e+00 0.000000e+00 0.000000e+00
0.000000e+00 0.000000e+00 0.000000e+00
0.000000e+00 0.000000e+00 0.000000e+00
0.000000e+00 0.000000e+00 0.000000e+00
0.000000e+00 0.000000e+00 0.000000e+00
0.000000e+00 0.000000e+00 0.000000e+00
7.503922e-02 -9.322982e-01 0.000000e+00
0.000000e+00 0.000000e+00 0.000000e+00
0.000000e+00 0.000000e+00 0.000000e+00
0.000000e+00 0.000000e+00 0.000000e+00
3.312004e-02 -6.871345e-01 0.000000e+00
0.000000e+00 0.000000e+00 0.000000e+00
0.000000e+00 0.000000e+00 0.000000e+00
-4.108144e-01 -6.640438e-01 0.000000e+00
4.431486e-01 -6.303727e-01 0.000000e+00
-1.040502e+00 -1.032378e+00 0.000000e+00
1.078105e+00 -1.100676e+00 0.000000e+00
0.000000e+00 0.000000e+00 0.000000e+00
0.000000e+00 0.000000e+00 0.000000e+00
-5.782358e-01 -1.160641e+00 0.000000e+00
6.656278e-01 -1.184093e+00 0.000000e+00
0.000000e+00 0.000000e+00 0.000000e+00
1.543612e+00 -1.058373e+00 0.000000e+00
-1.540359e+00 -1.056368e+00 0.000000e+00
1.581529e+00 -1.029965e+00 0.000000e+00
-1.484784e+00 -9.577134e-01 0.000000e+00
0.000000e+00 0.000000e+00 0.000000e+00
0.000000e+00 0.000000e+00 0.000000e+00
8.289034e-01 -5.234273e-01 0.000000e+00
-7.364161e-01 -4.295247e-01 0.000000e+00
0.000000e+00 0.000000e+00 0.000000e+00
1.694357e+00 -1.093980e+00 0.000000e+00
-1.728423e+00 -1.124504e+00 0.000000e+00
0.000000e+00 0.000000e+00 0.000000e+00
0.000000e+00 0.000000e+00 0.000000e+00
1.450957e+00 -1.409130e+00 0.000000e+00
-1.441070e+00 -1.403990e+00 0.000000e+00
1.161121e+00 -3.905442e-01 0.000000e+00
-1.154908e+00 -3.976307e-01 0.000000e+00
0.000000e+00 0.000000e+00 0.000000e+00
0.000000e+00 0.000000e+00 0.000000e+00
0.000000e+00 0.000000e+00 0.000000e+00
0.000000e+00 0.000000e+00 0.000000e+00
1.364595e+00 -1.235293e-01 0.000000e+00
-1.364594e+00 -1.235258e-01 0.000000e+00
0.000000e+00 0.000000e+00 0.000000e+00
0.000000e+00 0.000000e+00 0.000000e+00
1.356972e+00 -2.211478e-01 0.000000e+00
-1.356973e+00 -2.211496e-01 0.000000e+00
8.724825e-01 -1.044426e+00 0.000000e+00
-7.443696e-01 -1.184001e+00 0.000000e+00
0.000000e+00 0.000000e+00 0.000000e+00
0.000000e+00 0.000000e+00 0.000000e+00
-1.342877e+00 -3.193803e-01 0.000000e+00
1.342882e+00 -3.193834e-01 0.000000e+00
0.000000e+00 0.000000e+00 0.000000e+00
-1.320945e+00 -4.210023e-01 0.000000e+00
1.320943e+00 -4.209787e-01 0.000000e+00
-1.286891e+00 -5.336650e-01 0.000000e+00
1.286820e+00 -5.337617e-01 0.000000e+00
0.000000e+00 0.000000e+00 0.000000e+00
0.000000e+00 0.000000e+00 0.000000e+00
1.025209e+00 -9.712601e-01 0.000000e+00
-1.021185e+00 -9.565070e-01 0.000000e+00
1.228272e+00 -6.651752e-01 0.000000e+00
-1.227754e+00 -6.652976e-01 0.000000e+00
-1.149986e+00 -8.160826e-01 0.000000e+00
1.146942e+00 -8.150451e-01 0.000000e+00
0.000000e+00 0.000000e+00 0.000000e+00
0.000000e+00 0.000000e+00 0.000000e+00
0.000000e+00 0.000000e+00 0.000000e+00
0.000000e+00 0.000000e+00 0.000000e+00
0.000000e+00 0.000000e+00 0.000000e+00
0.000000e+00 0.000000e+00 0.000000e+00
0.000000e+00 0.000000e+00 0.000000e+00
0.000000e+00 0.000000e+00 0.000000e+00
0.000000e+00 0.000000e+00 0.000000e+00
0.000000e+00 0.000000e+00 0.000000e+00
0.000000e+00 0.000000e+00 0.000000e+00
0.000000e+00 0.000000e+00 0.000000e+00
0.000000e+00 0.000000e+00 0.000000e+00
0.000000e+00 0.000000e+00 0.000000e+00
0.000000e+00 0.000000e+00 0.000000e+00
-1.049559e+00 -1.334011e-01 0.000000e+00
1.050314e+00 -1.332638e-01 0.000000e+00
0.000000e+00 0.000000e+00 0.000000e+00
0.000000e+00 0.000000e+00 0.000000e+00
0.000000e+00 0.000000e+00 0.000000e+00
0.000000e+00 0.000000e+00 0.000000e+00
-1.092799e+00 -5.414797e-02 0.000000e+00
1.092815e+00 -5.416964e-02 0.000000e+00
-1.236067e+00 -6.344987e-02 0.000000e+00
1.236046e+00 -6.347794e-02 0.000000e+00
0.000000e+00 0.000000e+00 0.000000e+00
0.000000e+00 0.000000e+00 0.000000e+00
-4.746750e-01 -7.530204e-01 0.000000e+00
5.086313e-01 -7.145101e-01 0.000000e+00
3.657320e-01 -1.070248e+00 0.000000e+00
1.012946e-01 -4.084453e-01 0.000000e+00
0.000000e+00 0.000000e+00 0.000000e+00
0.000000e+00 0.000000e+00 0.000000e+00
-1.572740e-01 -5.576019e-01 0.000000e+00
0.000000e+00 0.000000e+00 0.000000e+00
0.000000e+00 0.000000e+00 0.000000e+00
0.000000e+00 0.000000e+00 0.000000e+00
0.000000e+00 0.000000e+00 0.000000e+00
0.000000e+00 0.000000e+00 0.000000e+00
0.000000e+00 0.000000e+00 0.000000e+00
2.449391e-01 -4.591586e-01 0.000000e+00
-5.722467e-01 -5.963577e-01 0.000000e+00
0.000000e+00 0.000000e+00 0.000000e+00
-1.281785e+00 -9.495553e-01 0.000000e+00
1.307848e+00 -1.073813e+00 0.000000e+00
0.000000e+00 0.000000e+00 0.000000e+00
0.000000e+00 0.000000e+00 0.000000e+00
0.000000e+00 0.000000e+00 0.000000e+00
1.132545e-01 -6.261651e-01 0.000000e+00
0.000000e+00 0.000000e+00 0.000000e+00
0.000000e+00 0.000000e+00 0.000000e+00
-3.555815e-01 -1.418593e+00 0.000000e+00
2.373612e-01 -1.335304e+00 0.000000e+00
0.000000e+00 0.000000e+00 0.000000e+00
0.000000e+00 0.000000e+00 0.000000e+00
0.000000e+00 0.000000e+00 0.000000e+00
1.576019e+00 -1.089303e+00 0.000000e+00
4.264830e-02 -4.576274e-01 0.000000e+00
0.000000e+00 0.000000e+00 0.000000e+00
0.000000e+00 0.000000e+00 0.000000e+00
0.000000e+00 0.000000e+00 0.000000e+00
3.559780e-01 -8.006093e-01 0.000000e+00
-2.235721e-01 -8.641955e-01 0.000000e+00
2.949890e-01 -5.932225e-01 0.000000e+00
0.000000e+00 0.000000e+00 0.000000e+00
8.822704e-01 -3.783205e-01 0.000000e+00
-1.589194e+00 -1.029480e+00 0.000000e+00
0.000000e+00 0.000000e+00 0.000000e+00
0.000000e+00 0.000000e+00 0.000000e+00
0.000000e+00 0.000000e+00 0.000000e+00
0.000000e+00 0.000000e+00 0.000000e+00
4.511375e-01 -4.204598e-01 0.000000e+00
5.977028e-01 -6.467881e-01 0.000000e+00
0.000000e+00 0.000000e+00 0.000000e+00
-2.573766e-01 -5.428449e-01 0.000000e+00
0.000000e+00 0.000000e+00 0.000000e+00
-8.361933e-01 -3.629937e-01 0.000000e+00
0.000000e+00 0.000000e+00 0.000000e+00
1.400969e+00 -9.015471e-01 0.000000e+00
-1.341682e+00 -8.592463e-01 0.000000e+00
0.000000e+00 0.000000e+00 0.000000e+00
0.000000e+00 0.000000e+00 0.000000e+00
0.000000e+00 0.000000e+00 0.000000e+00
-2.740754e-01 -3.980781e-01 0.000000e+00
0.000000e+00 0.000000e+00 0.000000e+00
-1.534852e+00 -1.138655e+00 0.000000e+00
0.000000e+00 0.000000e+00 0.000000e+00
-8.560872e-01 -9.408928e-01 0.000000e+00
8.790983e-01 -9.532207e-01 0.000000e+00
0.000000e+00 0.000000e+00 0.000000e+00
1.593356e+00 -1.269534e+00 0.000000e+00
1.391189e+00 -9.734776e-01 0.000000e+00
-1.434671e+00 -9.983068e-01 0.000000e+00
1.291651e+00 -8.479283e-01 0.000000e+00
-8.785086e-01 -5.385811e-01 0.000000e+00
-8.062565e-02 -1.628310e-01 0.000000e+00
-1.285190e+00 -2.116211e-01 0.000000e+00
0.000000e+00 0.000000e+00 0.000000e+00
0.000000e+00 0.000000e+00 0.000000e+00
0.000000e+00 0.000000e+00 0.000000e+00
-8.027675e-01 -6.065759e-01 0.000000e+00
7.716786e-01 -5.782826e-01 0.000000e+00
-1.457602e+00 -1.013404e+00 0.000000e+00
1.285477e+00 -2.102083e-01 0.000000e+00
0.000000e+00 0.000000e+00 0.000000e+00
0.000000e+00 0.000000e+00 0.000000e+00
0.000000e+00 0.000000e+00 0.000000e+00
0.000000e+00 0.000000e+00 0.000000e+00
0.000000e+00 0.000000e+00 0.000000e+00
0.000000e+00 0.000000e+00 0.000000e+00
0.000000e+00 0.000000e+00 0.000000e+00
0.000000e+00 0.000000e+00 0.000000e+00
0.000000e+00 0.000000e+00 0.000000e+00
0.000000e+00 0.000000e+00 0.000000e+00
0.000000e+00 0.000000e+00 0.000000e+00
0.000000e+00 0.000000e+00 0.000000e+00
8.048773e-01 -6.431369e-01 0.000000e+00
-8.062155e-01 -6.497504e-01 0.000000e+00
8.720147e-01 -5.476978e-01 0.000000e+00
-8.727557e-01 -5.462432e-01 0.000000e+00
-1.041776e+00 -7.310725e-01 0.000000e+00
0.000000e+00 0.000000e+00 0.000000e+00
0.000000e+00 0.000000e+00 0.000000e+00
0.000000e+00 0.000000e+00 0.000000e+00
1.363676e+00 -9.751124e-01 0.000000e+00
-1.618487e-01 -9.884301e-01 0.000000e+00
-1.957271e-01 -5.289729e-01 0.000000e+00
-1.425794e-01 -6.747604e-01 0.000000e+00
0.000000e+00 0.000000e+00 0.000000e+00
0.000000e+00 0.000000e+00 0.000000e+00
-6.913453e-01 -6.371404e-01 0.000000e+00
2.488763e-01 -3.205830e-01 0.000000e+00
6.722291e-01 -6.054894e-01 0.000000e+00
0.000000e+00 0.000000e+00 0.000000e+00
0.000000e+00 0.000000e+00 0.000000e+00
0.000000e+00 0.000000e+00 0.000000e+00
-1.153195e+00 -9.526928e-01 0.000000e+00
1.105249e+00 -7.878753e-01 0.000000e+00
0.000000e+00 0.000000e+00 0.000000e+00
-6.678768e-01 -6.191457e-01 0.000000e+00
0.000000e+00 0.000000e+00 0.000000e+00
0.000000e+00 0.000000e+00 0.000000e+00
2.994514e-01 -8.699113e-01 0.000000e+00
-9.729014e-01 -1.567290e+00 0.000000e+00
9.681632e-01 -1.553993e+00 0.000000e+00
0.000000e+00 0.000000e+00 0.000000e+00
0.000000e+00 0.000000e+00 0.000000e+00
-5.176928e-02 -3.687843e-01 0.000000e+00
2.644620e-01 -3.097484e-01 0.000000e+00
0.000000e+00 0.000000e+00 0.000000e+00
0.000000e+00 0.000000e+00 0.000000e+00
-1.126369e+00 -7.241159e-01 0.000000e+00
2.948589e-01 -6.832917e-01 0.000000e+00
9.015334e-01 -5.090652e-01 0.000000e+00
0.000000e+00 0.000000e+00 0.000000e+00
1.174928e-01 -3.652454e-01 0.000000e+00
0.000000e+00 0.000000e+00 0.000000e+00
0.000000e+00 0.000000e+00 0.000000e+00
-1.608066e+00 -1.287518e+00 0.000000e+00
-1.453499e+00 -1.017791e+00 0.000000e+00
1.415771e+00 -9.024438e-01 0.000000e+00
0.000000e+00 0.000000e+00 0.000000e+00
8.024897e-01 -1.106295e+00 0.000000e+00
0.000000e+00 0.000000e+00 0.000000e+00
0.000000e+00 0.000000e+00 0.000000e+00
0.000000e+00 0.000000e+00 0.000000e+00
0.000000e+00 0.000000e+00 0.000000e+00
1.558294e+00 -1.153542e+00 0.000000e+00
0.000000e+00 0.000000e+00 0.000000e+00
3.659540e-01 -9.882619e-01 0.000000e+00
0.000000e+00 0.000000e+00 0.000000e+00
0.000000e+00 0.000000e+00 0.000000e+00
0.000000e+00 0.000000e+00 0.000000e+00
-1.720463e-01 -3.517680e-01 0.000000e+00
0.000000e+00 0.000000e+00 0.000000e+00
-5.567858e-01 -4.120522e-01 0.000000e+00
3.710017e-01 -3.291877e-01 0.000000e+00
0.000000e+00 0.000000e+00 0.000000e+00
0.000000e+00 0.000000e+00 0.000000e+00
0.000000e+00 0.000000e+00 0.000000e+00
4.326775e-01 -4.815932e-01 0.000000e+00
-4.577464e-01 -5.198685e-01 0.000000e+00
3.883410e-01 -1.113450e+00 0.000000e+00
-3.018705e-01 -1.290153e+00 0.000000e+00
2.075037e-02 -1.850881e-01 0.000000e+00
-2.199260e-01 -4.156007e-01 0.000000e+00
0.000000e+00 0.000000e+00 0.000000e+00
1.076277e+00 -7.565582e-01 0.000000e+00
0.000000e+00 0.000000e+00 0.000000e+00
0.000000e+00 0.000000e+00 0.000000e+00
1.267210e+00 -8.959613e-01 0.000000e+00
0.000000e+00 0.000000e+00 0.000000e+00
0.000000e+00 0.000000e+00 0.000000e+00
0.000000e+00 0.000000e+00 0.000000e+00
5.539925e-01 -4.068889e-01 0.000000e+00
-2.455086e-01 -2.801374e-01 0.000000e+00
-6.562283e-01 -1.115372e+00 0.000000e+00
4.068068e-02 -7.122265e-01 0.000000e+00
0.000000e+00 0.000000e+00 0.000000e+00
-2.434165e-02 -3.020183e-01 0.000000e+00
-1.911711e-01 -8.664030e-01 0.000000e+00
2.492300e-01 -7.122132e-01 0.000000e+00
1.043082e-01 -1.030555e+00 0.000000e+00
6.155717e-02 -1.348389e-01 0.000000e+00
0.000000e+00 0.000000e+00 0.000000e+00
0.000000e+00 0.000000e+00 0.000000e+00
6.962383e-01 -1.043299e+00 0.000000e+00
0.000000e+00 0.000000e+00 0.000000e+00
0.000000e+00 0.000000e+00 0.000000e+00