# vtk DataFile Version 2.0
step 0 time 0.000000e+00 normalized time 0.000000e+00, generated by simple.py
ASCII
DATASET UNSTRUCTURED_GRID

POINTS 55 float
0.000000e+00 0.000000e+00 0.000000e+00
7.500000e+01 0.000000e+00 0.000000e+00
0.000000e+00 7.500000e+01 0.000000e+00
1.071429e+01 0.000000e+00 0.000000e+00
2.142857e+01 0.000000e+00 0.000000e+00
3.214286e+01 0.000000e+00 0.000000e+00
4.285714e+01 0.000000e+00 0.000000e+00
5.357143e+01 0.000000e+00 0.000000e+00
6.428571e+01 0.000000e+00 0.000000e+00
0.000000e+00 1.071429e+01 0.000000e+00
0.000000e+00 2.142857e+01 0.000000e+00
0.000000e+00 3.214286e+01 0.000000e+00
0.000000e+00 4.285714e+01 0.000000e+00
0.000000e+00 5.357143e+01 0.000000e+00
0.000000e+00 6.428571e+01 0.000000e+00
7.423661e+01 1.067361e+01 0.000000e+00
7.196197e+01 2.112994e+01 0.000000e+00
6.822240e+01 3.115613e+01 0.000000e+00
6.309401e+01 4.054806e+01 0.000000e+00
5.668122e+01 4.911456e+01 0.000000e+00
4.911456e+01 5.668122e+01 0.000000e+00
4.054806e+01 6.309401e+01 0.000000e+00
3.115613e+01 6.822240e+01 0.000000e+00
2.112994e+01 7.196197e+01 0.000000e+00
1.067361e+01 7.423661e+01 0.000000e+00
1.978064e+01 5.852776e+01 0.000000e+00
2.446389e+01 2.633292e+01 0.000000e+00
4.841999e+01 4.533139e+01 0.000000e+00
1.034694e+01 3.898205e+01 0.000000e+00
4.024538e+01 9.726965e+00 0.000000e+00
4.740021e+01 3.478204e+01 0.000000e+00
1.318825e+01 2.654085e+01 0.000000e+00
2.799400e+01 8.987854e+00 0.000000e+00
1.965667e+01 1.767786e+01 0.000000e+00
1.867054e+01 7.276934e+00 0.000000e+00
3.699425e+01 3.043617e+01 0.000000e+00
5.319917e+01 3.792859e+01 0.000000e+00
2.982689e+01 3.798379e+01 0.000000e+00
3.257063e+01 1.898003e+01 0.000000e+00
1.953585e+01 3.454134e+01 0.000000e+00
5.997138e+01 2.029010e+01 0.000000e+00
5.024490e+01 9.103503e+00 0.000000e+00
1.004563e+01 6.251208e+01 0.000000e+00
4.600980e+01 2.103233e+01 0.000000e+00
6.274148e+01 9.758242e+00 0.000000e+00
2.235534e+01 4.653335e+01 0.000000e+00
1.004895e+01 4.970083e+01 0.000000e+00
5.640535e+01 3.082668e+01 0.000000e+00
3.336729e+01 4.674286e+01 0.000000e+00
2.606847e+01 6.353294e+01 0.000000e+00
2.944752e+01 5.622915e+01 0.000000e+00
3.965244e+01 5.422253e+01 0.000000e+00
8.025513e+00 1.841259e+01 0.000000e+00
3.968793e+01 4.181981e+01 0.000000e+00
8.308714e+00 9.005551e+00 0.000000e+00

CELLS 83 332
3 28 12 11 
3 6 29 5 
3 33 26 31 
3 34 4 32 
3 31 11 10 
3 5 32 4 
3 32 33 34 
3 32 5 29 
3 11 31 28 
3 36 18 19 
3 29 38 32 
3 26 38 35 
3 26 39 31 
3 39 28 31 
3 39 26 37 
3 42 14 13 
3 43 30 35 
3 8 44 7 
3 33 38 26 
3 33 32 38 
3 35 37 26 
3 43 38 29 
3 35 38 43 
3 39 45 28 
3 39 37 45 
3 43 29 41 
3 36 27 30 
3 40 43 41 
3 19 27 36 
3 41 6 7 
3 29 6 41 
3 12 46 13 
3 46 12 28 
3 41 44 40 
3 44 41 7 
3 46 42 13 
3 43 47 30 
3 47 43 40 
3 28 45 46 
3 45 25 46 
3 42 46 25 
3 15 44 8 
3 1 15 8 
3 42 24 14 
3 24 2 14 
3 30 47 36 
3 36 47 18 
3 18 47 17 
3 15 16 44 
3 16 40 44 
3 40 17 47 
3 17 40 16 
3 20 27 19 
3 48 45 37 
3 23 49 22 
3 23 42 25 
3 24 42 23 
3 25 49 23 
3 20 51 27 
3 53 30 27 
3 30 53 35 
3 51 53 27 
3 51 48 53 
3 53 37 35 
3 48 37 53 
3 49 25 50 
3 45 50 25 
3 50 45 48 
3 21 51 20 
3 51 50 48 
3 22 49 50 
3 52 10 9 
3 31 10 52 
3 52 33 31 
3 50 21 22 
3 51 21 50 
3 54 9 0 
3 3 54 0 
3 9 54 52 
3 3 34 54 
3 4 34 3 
3 33 54 34 
3 33 52 54 

CELL_TYPES 83
5
5
5
5
5
5
5
5
5
5
5
5
5
5
5
5
5
5
5
5
5
5
5
5
5
5
5
5
5
5
5
5
5
5
5
5
5
5
5
5
5
5
5
5
5
5
5
5
5
5
5
5
5
5
5
5
5
5
5
5
5
5
5
5
5
5
5
5
5
5
5
5
5
5
5
5
5
5
5
5
5
5
5

POINT_DATA 55

SCALARS node_groups int 1
LOOKUP_TABLE default
0
0
0
0
0
0
0
0
0
0
0
0
0
0
0
0
0
0
0
0
0
0
0
0
0
0
0
0
0
0
0
0
0
0
0
0
0
0
0
0
0
0
0
0
0
0
0
0
0
0
0
0
0
0
0

VECTORS u float
0.000000e+00 0.000000e+00 0.000000e+00
3.737667e-01 0.000000e+00 0.000000e+00
0.000000e+00 -1.653182e+00 0.000000e+00
1.097665e-01 0.000000e+00 0.000000e+00
2.057241e-01 0.000000e+00 0.000000e+00
2.816780e-01 0.000000e+00 0.000000e+00
3.294770e-01 0.000000e+00 0.000000e+00
3.613560e-01 0.000000e+00 0.000000e+00
3.732822e-01 0.000000e+00 0.000000e+00
0.000000e+00 -1.454478e-01 0.000000e+00
0.000000e+00 -3.011864e-01 0.000000e+00
0.000000e+00 -4.645282e-01 0.000000e+00
0.000000e+00 -6.622565e-01 0.000000e+00
0.000000e+00 -9.094325e-01 0.000000e+00
0.000000e+00 -1.232030e+00 0.000000e+00
3.753886e-01 -3.379786e-04 0.000000e+00
3.637690e-01 -5.402396e-03 0.000000e+00
3.392347e-01 -1.808781e-02 0.000000e+00
2.977350e-01 -4.387428e-02 0.000000e+00
2.569567e-01 -7.982277e-02 0.000000e+00
2.126852e-01 -1.312182e-01 0.000000e+00
1.524051e-01 -2.193494e-01 0.000000e+00
1.071402e-01 -3.566712e-01 0.000000e+00
9.327390e-02 -5.742091e-01 0.000000e+00
1.003270e-01 -8.895035e-01 0.000000e+00
1.810432e-01 -5.564296e-01 0.000000e+00
2.327539e-01 -2.375918e-01 0.000000e+00
2.736750e-01 -1.320907e-01 0.000000e+00
1.256967e-01 -5.054363e-01 0.000000e+00
3.209341e-01 -5.203202e-02 0.000000e+00
3.089675e-01 -1.203136e-01 0.000000e+00
1.474468e-01 -3.174020e-01 0.000000e+00
2.556204e-01 -7.611875e-02 0.000000e+00
1.988024e-01 -1.864374e-01 0.000000e+00
1.810315e-01 -7.775220e-02 0.000000e+00
2.941307e-01 -1.788641e-01 0.000000e+00
3.041774e-01 -9.344542e-02 0.000000e+00
2.603745e-01 -2.812367e-01 0.000000e+00
2.804110e-01 -1.353347e-01 0.000000e+00
2.017614e-01 -3.488407e-01 0.000000e+00
3.582514e-01 -3.467458e-02 0.000000e+00
3.523581e-01 -3.226999e-02 0.000000e+00
1.256660e-01 -8.196695e-01 0.000000e+00
3.321094e-01 -8.573832e-02 0.000000e+00
3.712472e-01 -1.256951e-02 0.000000e+00
2.175887e-01 -4.253429e-01 0.000000e+00
1.296187e-01 -6.506514e-01 0.000000e+00
3.323438e-01 -6.732499e-02 0.000000e+00
2.508813e-01 -2.836614e-01 0.000000e+00
1.511939e-01 -4.577878e-01 0.000000e+00
2.159029e-01 -3.717842e-01 0.000000e+00
2.308069e-01 -2.240645e-01 0.000000e+00
8.716448e-02 -2.306905e-01 0.000000e+00
2.774136e-01 -1.992385e-01 0.000000e+00
8.820237e-02 -1.120153e-01 0.000000e+00

CELL_DATA 83
SCALARS mat_id int 1
LOOKUP_TABLE default
5
5
5
5
5
5
5
5
5
5
5
5
5
5
5
5
5
5
5
5
5
5
5
5
5
5
5
5
5
5
5
5
5
5
5
5
5
5
5
5
5
5
5
5
5
5
5
5
5
5
5
5
5
5
5
5
5
5
5
5
5
5
5
5
5
5
5
5
5
5
5
5
5
5
5
5
5
5
5
5
5
5
5
