# vtk DataFile Version 2.0
step 0 time 0.000000e+00 normalized time 0.000000e+00, generated by simple.py
ASCII
DATASET UNSTRUCTURED_GRID

POINTS 61 float
0.000000e+00 0.000000e+00 0.000000e+00
1.000000e-01 0.000000e+00 0.000000e+00
2.000000e-01 0.000000e+00 0.000000e+00
3.000000e-01 0.000000e+00 0.000000e+00
4.000000e-01 0.000000e+00 0.000000e+00
5.000000e-01 0.000000e+00 0.000000e+00
6.000000e-01 0.000000e+00 0.000000e+00
7.000000e-01 0.000000e+00 0.000000e+00
8.000000e-01 0.000000e+00 0.000000e+00
9.000000e-01 0.000000e+00 0.000000e+00
1.000000e+00 0.000000e+00 0.000000e+00
0.000000e+00 5.000000e-02 0.000000e+00
1.000000e-01 5.000000e-02 0.000000e+00
2.000000e-01 5.000000e-02 0.000000e+00
3.000000e-01 5.000000e-02 0.000000e+00
4.000000e-01 5.000000e-02 0.000000e+00
5.000000e-01 5.000000e-02 0.000000e+00
6.000000e-01 5.000000e-02 0.000000e+00
7.000000e-01 5.000000e-02 0.000000e+00
8.000000e-01 5.000000e-02 0.000000e+00
9.000000e-01 5.000000e-02 0.000000e+00
1.000000e+00 5.000000e-02 0.000000e+00
0.000000e+00 1.000000e-01 0.000000e+00
1.000000e-01 1.000000e-01 0.000000e+00
2.000000e-01 1.000000e-01 0.000000e+00
3.000000e-01 1.000000e-01 0.000000e+00
4.000000e-01 1.000000e-01 0.000000e+00
5.000000e-01 1.000000e-01 0.000000e+00
6.000000e-01 1.000000e-01 0.000000e+00
7.000000e-01 1.000000e-01 0.000000e+00
8.000000e-01 1.000000e-01 0.000000e+00
9.000000e-01 1.000000e-01 0.000000e+00
1.000000e+00 1.000000e-01 0.000000e+00
2.000000e-01 1.500000e-01 0.000000e+00
2.999609e-01 1.500000e-01 0.000000e+00
4.000391e-01 1.500000e-01 0.000000e+00
5.000000e-01 1.500000e-01 0.000000e+00
5.999609e-01 1.500000e-01 0.000000e+00
7.000391e-01 1.500000e-01 0.000000e+00
8.000000e-01 1.500000e-01 0.000000e+00
2.000000e-01 2.000000e-01 0.000000e+00
2.999609e-01 2.000000e-01 0.000000e+00
4.000391e-01 2.000000e-01 0.000000e+00
5.000000e-01 2.000000e-01 0.000000e+00
5.999609e-01 2.000000e-01 0.000000e+00
7.000391e-01 2.000000e-01 0.000000e+00
8.000000e-01 2.000000e-01 0.000000e+00
2.000000e-01 2.500000e-01 0.000000e+00
2.999609e-01 2.500000e-01 0.000000e+00
4.000391e-01 2.500000e-01 0.000000e+00
5.000000e-01 2.500000e-01 0.000000e+00
5.999609e-01 2.500000e-01 0.000000e+00
7.000391e-01 2.500000e-01 0.000000e+00
8.000000e-01 2.500000e-01 0.000000e+00
2.000000e-01 3.000000e-01 0.000000e+00
2.999609e-01 3.000000e-01 0.000000e+00
4.000391e-01 3.000000e-01 0.000000e+00
5.000000e-01 3.000000e-01 0.000000e+00
5.999609e-01 3.000000e-01 0.000000e+00
7.000391e-01 3.000000e-01 0.000000e+00
8.000000e-01 3.000000e-01 0.000000e+00

CELLS 44 220
4 0 1 12 11 
4 1 2 13 12 
4 2 3 14 13 
4 3 4 15 14 
4 4 5 16 15 
4 5 6 17 16 
4 6 7 18 17 
4 7 8 19 18 
4 8 9 20 19 
4 9 10 21 20 
4 11 12 23 22 
4 12 13 24 23 
4 13 14 25 24 
4 14 15 26 25 
4 15 16 27 26 
4 16 17 28 27 
4 17 18 29 28 
4 18 19 30 29 
4 19 20 31 30 
4 20 21 32 31 
4 24 25 34 33 
4 25 26 35 34 
4 26 27 36 35 
4 27 28 37 36 
4 28 29 38 37 
4 29 30 39 38 
4 33 34 41 40 
4 34 35 42 41 
4 35 36 43 42 
4 36 37 44 43 
4 37 38 45 44 
4 38 39 46 45 
4 40 41 48 47 
4 41 42 49 48 
4 42 43 50 49 
4 43 44 51 50 
4 44 45 52 51 
4 45 46 53 52 
4 47 48 55 54 
4 48 49 56 55 
4 49 50 57 56 
4 50 51 58 57 
4 51 52 59 58 
4 52 53 60 59 

CELL_TYPES 44
9
9
9
9
9
9
9
9
9
9
9
9
9
9
9
9
9
9
9
9
9
9
9
9
9
9
9
9
9
9
9
9
9
9
9
9
9
9
9
9
9
9
9
9

POINT_DATA 61

SCALARS node_groups int 1
LOOKUP_TABLE default
0
0
0
0
0
0
0
0
0
0
0
0
0
0
0
0
0
0
0
0
0
0
0
0
0
0
0
0
0
0
0
0
0
0
0
0
0
0
0
0
0
0
0
0
0
0
0
0
0
0
0
0
0
0
0
0
0
0
0
0
0

SCALARS real.p float 1
LOOKUP_TABLE default
-1.050080e+02
-1.005560e+02
-8.911530e+01
-7.462505e+01
-5.741279e+01
-3.623232e+01
-1.070758e+01
2.137332e+01
6.649901e+01
1.238520e+02
1.765771e+02
-1.050739e+02
-1.004948e+02
-8.834763e+01
-7.415671e+01
-5.735000e+01
-3.636478e+01
-1.119245e+01
1.943147e+01
6.342538e+01
1.236094e+02
1.768407e+02
-1.049322e+02
-1.009382e+02
-8.533654e+01
-7.296742e+01
-5.718368e+01
-3.674623e+01
-1.246551e+01
1.447072e+01
5.140139e+01
1.253783e+02
1.762804e+02
-7.885866e+01
-7.189760e+01
-5.687721e+01
-3.721928e+01
-1.454992e+01
9.905380e+00
2.549092e+01
-7.582246e+01
-7.044316e+01
-5.664837e+01
-3.773818e+01
-1.629833e+01
3.808014e+00
1.324461e+01
-7.432679e+01
-6.950671e+01
-5.645818e+01
-3.809685e+01
-1.769116e+01
-1.428890e-01
7.163226e+00
-7.386587e+01
-6.919399e+01
-5.638497e+01
-3.822782e+01
-1.821344e+01
-1.470791e+00
5.281196e+00

SCALARS imag.p float 1
LOOKUP_TABLE default
4.799457e+02
3.063555e+02
1.249610e+02
-1.158445e+01
-1.008806e+02
-1.635035e+02
-2.065223e+02
-2.287215e+02
-2.270202e+02
-2.012289e+02
-1.569659e+02
4.807617e+02
3.056017e+02
1.154140e+02
-1.763503e+01
-1.024523e+02
-1.641013e+02
-2.068553e+02
-2.293205e+02
-2.278786e+02
-2.012959e+02
-1.568945e+02
4.790054e+02
3.110974e+02
7.807379e+01
-3.309993e+01
-1.065773e+02
-1.658226e+02
-2.077246e+02
-2.308747e+02
-2.312114e+02
-2.008033e+02
-1.570677e+02
-2.401598e+00
-4.736003e+01
-1.132929e+02
-1.679573e+02
-2.090322e+02
-2.323888e+02
-2.384281e+02
-4.046614e+01
-6.637661e+01
-1.189577e+02
-1.702989e+02
-2.102247e+02
-2.343240e+02
-2.419254e+02
-5.938219e+01
-7.870550e+01
-1.234615e+02
-1.719175e+02
-2.111480e+02
-2.355983e+02
-2.437030e+02
-6.523841e+01
-8.285153e+01
-1.251482e+02
-1.725085e+02
-2.114877e+02
-2.360335e+02
-2.442598e+02

CELL_DATA 44
SCALARS mat_id int 1
LOOKUP_TABLE default
2
2
2
2
2
2
2
2
2
2
2
2
2
2
2
2
2
2
2
2
1
1
1
1
1
1
1
1
1
1
1
1
1
1
1
1
1
1
1
1
1
1
1
1
